data.peg6-CH3-0.2

4360 atoms
5360 bonds
9540 angles
1680 dihedrals

13 atom types
16 bond types
16 angle types
9 dihedral types

0 47.6892 xlo xhi
0 41.3 ylo yhi
-30 68 zlo zhi

Masses

1 12.011
2 1.0079
3 12.011
4 15.9994
5 12.011
6 15.9994
7 1.0079
8 28.0855
9 28.0855
10 15.9994
11 1.0079
12 28.0855
13 15.9994

Atoms

1	0	10	-1.289	1.191	0.688	6.322
2	0	9	2.622	1.191	0.688	0
3	0	10	-1.289	1.191	2.063	0.486
4	0	9	2.622	1.191	3.439	0.973
5	0	10	-1.289	2.382	0	0.486
6	0	10	-1.289	0	0	0.486
7	0	10	-1.289	1.191	3.439	2.431
8	0	9	2.622	1.191	3.439	3.89
9	0	10	-1.289	1.191	2.063	4.377
10	0	9	2.622	1.191	0.688	4.863
11	0	10	-1.289	2.382	0	4.377
12	0	10	-1.289	0	0	4.377
13	0	9	2.622	1.191	0.688	7.781
14	0	10	-1.289	2.382	0	8.267
15	0	10	-1.289	0	0	8.267
16	0	10	-1.289	1.191	2.063	8.267
17	0	12	2.41	1.191	3.439	8.753
18	0	13	-0.818	1.191	3.439	10.212
19	0	10	-1.289	5.956	0.688	6.322
20	0	9	2.622	5.956	0.688	0
21	0	10	-1.289	5.956	2.063	0.486
22	0	9	2.622	5.956	3.439	0.973
23	0	10	-1.289	7.147	0	0.486
24	0	10	-1.289	4.765	0	0.486
25	0	10	-1.289	5.956	3.439	2.431
26	0	9	2.622	5.956	3.439	3.89
27	0	10	-1.289	5.956	2.063	4.377
28	0	9	2.622	5.956	0.688	4.863
29	0	10	-1.289	7.147	0	4.377
30	0	10	-1.289	4.765	0	4.377
31	0	9	2.622	5.956	0.688	7.781
32	0	10	-1.289	7.147	0	8.267
33	0	10	-1.289	4.765	0	8.267
34	0	10	-1.289	5.956	2.063	8.267
35	0	12	2.41	5.956	3.439	8.753
36	0	13	-0.818	5.956	3.439	10.212
37	0	10	-1.289	3.573	4.814	6.322
38	0	9	2.622	3.573	4.814	0
39	0	10	-1.289	3.573	6.189	0.486
40	0	9	2.622	3.573	7.565	0.973
41	0	10	-1.289	4.765	4.126	0.486
42	0	10	-1.289	2.382	4.126	0.486
43	0	10	-1.289	3.573	7.565	2.431
44	0	9	2.622	3.573	7.565	3.89
45	0	10	-1.289	3.573	6.189	4.377
46	0	9	2.622	3.573	4.814	4.863
47	0	10	-1.289	4.765	4.126	4.377
48	0	10	-1.289	2.382	4.126	4.377
49	0	9	2.622	3.573	4.814	7.781
50	0	10	-1.289	4.765	4.126	8.267
51	0	10	-1.289	2.382	4.126	8.267
52	0	10	-1.289	3.573	6.189	8.267
53	0	12	2.41	3.573	7.565	8.753
54	0	13	-0.818	3.573	7.565	10.212
55	0	10	-1.289	8.338	4.814	6.322
56	0	9	2.622	8.338	4.814	0
57	0	10	-1.289	8.338	6.189	0.486
58	0	9	2.622	8.338	7.565	0.973
59	0	10	-1.289	9.529	4.126	0.486
60	0	10	-1.289	7.147	4.126	0.486
61	0	10	-1.289	8.338	7.565	2.431
62	0	9	2.622	8.338	7.565	3.89
63	0	10	-1.289	8.338	6.189	4.377
64	0	9	2.622	8.338	4.814	4.863
65	0	10	-1.289	9.529	4.126	4.377
66	0	10	-1.289	7.147	4.126	4.377
67	0	9	2.622	8.338	4.814	7.781
68	0	10	-1.289	9.529	4.126	8.267
69	0	10	-1.289	7.147	4.126	8.267
70	0	10	-1.289	8.338	6.189	8.267
71	0	12	2.41	8.338	7.565	8.753
72	0	13	-0.818	8.338	7.565	10.212
73	0	10	-1.289	10.72	0.688	6.322
74	0	9	2.622	10.72	0.688	0
75	0	10	-1.289	10.72	2.063	0.486
76	0	9	2.622	10.72	3.439	0.973
77	0	10	-1.289	11.912	0	0.486
78	0	10	-1.289	9.529	0	0.486
79	0	10	-1.289	10.72	3.439	2.431
80	0	9	2.622	10.72	3.439	3.89
81	0	10	-1.289	10.72	2.063	4.377
82	0	9	2.622	10.72	0.688	4.863
83	0	10	-1.289	11.912	0	4.377
84	0	10	-1.289	9.529	0	4.377
85	0	9	2.622	10.72	0.688	7.781
86	0	10	-1.289	11.912	0	8.267
87	0	10	-1.289	9.529	0	8.267
88	0	10	-1.289	10.72	2.063	8.267
89	0	12	2.41	10.72	3.439	8.753
90	0	13	-0.818	10.72	3.439	10.212
91	0	10	-1.289	15.485	0.688	6.322
92	0	9	2.622	15.485	0.688	0
93	0	10	-1.289	15.485	2.063	0.486
94	0	9	2.622	15.485	3.439	0.973
95	0	10	-1.289	16.676	0	0.486
96	0	10	-1.289	14.294	0	0.486
97	0	10	-1.289	15.485	3.439	2.431
98	0	9	2.622	15.485	3.439	3.89
99	0	10	-1.289	15.485	2.063	4.377
100	0	9	2.622	15.485	0.688	4.863
101	0	10	-1.289	16.676	0	4.377
102	0	10	-1.289	14.294	0	4.377
103	0	9	2.622	15.485	0.688	7.781
104	0	10	-1.289	16.676	0	8.267
105	0	10	-1.289	14.294	0	8.267
106	0	10	-1.289	15.485	2.063	8.267
107	0	12	2.41	15.485	3.439	8.753
108	0	13	-0.818	15.485	3.439	10.212
109	0	10	-1.289	13.103	4.814	6.322
110	0	9	2.622	13.103	4.814	0
111	0	10	-1.289	13.103	6.189	0.486
112	0	9	2.622	13.103	7.565	0.973
113	0	10	-1.289	14.294	4.126	0.486
114	0	10	-1.289	11.912	4.126	0.486
115	0	10	-1.289	13.103	7.565	2.431
116	0	9	2.622	13.103	7.565	3.89
117	0	10	-1.289	13.103	6.189	4.377
118	0	9	2.622	13.103	4.814	4.863
119	0	10	-1.289	14.294	4.126	4.377
120	0	10	-1.289	11.912	4.126	4.377
121	0	9	2.622	13.103	4.814	7.781
122	0	10	-1.289	14.294	4.126	8.267
123	0	10	-1.289	11.912	4.126	8.267
124	0	10	-1.289	13.103	6.189	8.267
125	0	12	2.41	13.103	7.565	8.753
126	0	13	-0.818	13.103	7.565	10.212
127	0	10	-1.289	17.867	4.814	6.322
128	0	9	2.622	17.867	4.814	0
129	0	10	-1.289	17.867	6.189	0.486
130	0	9	2.622	17.867	7.565	0.973
131	0	10	-1.289	19.058	4.126	0.486
132	0	10	-1.289	16.676	4.126	0.486
133	0	10	-1.289	17.867	7.565	2.431
134	0	9	2.622	17.867	7.565	3.89
135	0	10	-1.289	17.867	6.189	4.377
136	0	9	2.622	17.867	4.814	4.863
137	0	10	-1.289	19.058	4.126	4.377
138	0	10	-1.289	16.676	4.126	4.377
139	0	9	2.622	17.867	4.814	7.781
140	0	10	-1.289	19.058	4.126	8.267
141	0	10	-1.289	16.676	4.126	8.267
142	0	10	-1.289	17.867	6.189	8.267
143	0	12	2.41	17.867	7.565	8.753
144	0	13	-0.818	17.867	7.565	10.212
145	0	10	-1.289	20.25	0.688	6.322
146	0	9	2.622	20.25	0.688	0
147	0	10	-1.289	20.25	2.063	0.486
148	0	9	2.622	20.25	3.439	0.973
149	0	10	-1.289	21.441	0	0.486
150	0	10	-1.289	19.058	0	0.486
151	0	10	-1.289	20.25	3.439	2.431
152	0	9	2.622	20.25	3.439	3.89
153	0	10	-1.289	20.25	2.063	4.377
154	0	9	2.622	20.25	0.688	4.863
155	0	10	-1.289	21.441	0	4.377
156	0	10	-1.289	19.058	0	4.377
157	0	9	2.622	20.25	0.688	7.781
158	0	10	-1.289	21.441	0	8.267
159	0	10	-1.289	19.058	0	8.267
160	0	10	-1.289	20.25	2.063	8.267
161	0	12	2.41	20.25	3.439	8.753
162	0	13	-0.818	20.25	3.439	10.212
163	0	10	-1.289	25.014	0.688	6.322
164	0	9	2.622	25.014	0.688	0
165	0	10	-1.289	25.014	2.063	0.486
166	0	9	2.622	25.014	3.439	0.973
167	0	10	-1.289	26.205	0	0.486
168	0	10	-1.289	23.823	0	0.486
169	0	10	-1.289	25.014	3.439	2.431
170	0	9	2.622	25.014	3.439	3.89
171	0	10	-1.289	25.014	2.063	4.377
172	0	9	2.622	25.014	0.688	4.863
173	0	10	-1.289	26.205	0	4.377
174	0	10	-1.289	23.823	0	4.377
175	0	9	2.622	25.014	0.688	7.781
176	0	10	-1.289	26.205	0	8.267
177	0	10	-1.289	23.823	0	8.267
178	0	10	-1.289	25.014	2.063	8.267
179	0	12	2.41	25.014	3.439	8.753
180	0	13	-0.818	25.014	3.439	10.212
181	0	10	-1.289	22.632	4.814	6.322
182	0	9	2.622	22.632	4.814	0
183	0	10	-1.289	22.632	6.189	0.486
184	0	9	2.622	22.632	7.565	0.973
185	0	10	-1.289	23.823	4.126	0.486
186	0	10	-1.289	21.441	4.126	0.486
187	0	10	-1.289	22.632	7.565	2.431
188	0	9	2.622	22.632	7.565	3.89
189	0	10	-1.289	22.632	6.189	4.377
190	0	9	2.622	22.632	4.814	4.863
191	0	10	-1.289	23.823	4.126	4.377
192	0	10	-1.289	21.441	4.126	4.377
193	0	9	2.622	22.632	4.814	7.781
194	0	10	-1.289	23.823	4.126	8.267
195	0	10	-1.289	21.441	4.126	8.267
196	0	10	-1.289	22.632	6.189	8.267
197	0	12	2.41	22.632	7.565	8.753
198	0	13	-0.818	22.632	7.565	10.212
199	0	10	-1.289	27.396	4.814	6.322
200	0	9	2.622	27.396	4.814	0
201	0	10	-1.289	27.396	6.189	0.486
202	0	9	2.622	27.396	7.565	0.973
203	0	10	-1.289	28.587	4.126	0.486
204	0	10	-1.289	26.205	4.126	0.486
205	0	10	-1.289	27.396	7.565	2.431
206	0	9	2.622	27.396	7.565	3.89
207	0	10	-1.289	27.396	6.189	4.377
208	0	9	2.622	27.396	4.814	4.863
209	0	10	-1.289	28.587	4.126	4.377
210	0	10	-1.289	26.205	4.126	4.377
211	0	9	2.622	27.396	4.814	7.781
212	0	10	-1.289	28.587	4.126	8.267
213	0	10	-1.289	26.205	4.126	8.267
214	0	10	-1.289	27.396	6.189	8.267
215	0	12	2.41	27.396	7.565	8.753
216	0	13	-0.818	27.396	7.565	10.212
217	0	10	-1.289	29.779	0.688	6.322
218	0	9	2.622	29.779	0.688	0
219	0	10	-1.289	29.779	2.063	0.486
220	0	9	2.622	29.779	3.439	0.973
221	0	10	-1.289	30.97	0	0.486
222	0	10	-1.289	28.587	0	0.486
223	0	10	-1.289	29.779	3.439	2.431
224	0	9	2.622	29.779	3.439	3.89
225	0	10	-1.289	29.779	2.063	4.377
226	0	9	2.622	29.779	0.688	4.863
227	0	10	-1.289	30.97	0	4.377
228	0	10	-1.289	28.587	0	4.377
229	0	9	2.622	29.779	0.688	7.781
230	0	10	-1.289	30.97	0	8.267
231	0	10	-1.289	28.587	0	8.267
232	0	10	-1.289	29.779	2.063	8.267
233	0	12	2.41	29.779	3.439	8.753
234	0	13	-0.818	29.779	3.439	10.212
235	0	10	-1.289	34.543	0.688	6.322
236	0	9	2.622	34.543	0.688	0
237	0	10	-1.289	34.543	2.063	0.486
238	0	9	2.622	34.543	3.439	0.973
239	0	10	-1.289	35.734	0	0.486
240	0	10	-1.289	33.352	0	0.486
241	0	10	-1.289	34.543	3.439	2.431
242	0	9	2.622	34.543	3.439	3.89
243	0	10	-1.289	34.543	2.063	4.377
244	0	9	2.622	34.543	0.688	4.863
245	0	10	-1.289	35.734	0	4.377
246	0	10	-1.289	33.352	0	4.377
247	0	9	2.622	34.543	0.688	7.781
248	0	10	-1.289	35.734	0	8.267
249	0	10	-1.289	33.352	0	8.267
250	0	10	-1.289	34.543	2.063	8.267
251	0	12	2.41	34.543	3.439	8.753
252	0	13	-0.818	34.543	3.439	10.212
253	0	10	-1.289	32.161	4.814	6.322
254	0	9	2.622	32.161	4.814	0
255	0	10	-1.289	32.161	6.189	0.486
256	0	9	2.622	32.161	7.565	0.973
257	0	10	-1.289	33.352	4.126	0.486
258	0	10	-1.289	30.97	4.126	0.486
259	0	10	-1.289	32.161	7.565	2.431
260	0	9	2.622	32.161	7.565	3.89
261	0	10	-1.289	32.161	6.189	4.377
262	0	9	2.622	32.161	4.814	4.863
263	0	10	-1.289	33.352	4.126	4.377
264	0	10	-1.289	30.97	4.126	4.377
265	0	9	2.622	32.161	4.814	7.781
266	0	10	-1.289	33.352	4.126	8.267
267	0	10	-1.289	30.97	4.126	8.267
268	0	10	-1.289	32.161	6.189	8.267
269	0	12	2.41	32.161	7.565	8.753
270	0	13	-0.818	32.161	7.565	10.212
271	0	10	-1.289	36.925	4.814	6.322
272	0	9	2.622	36.925	4.814	0
273	0	10	-1.289	36.925	6.189	0.486
274	0	9	2.622	36.925	7.565	0.973
275	0	10	-1.289	38.117	4.126	0.486
276	0	10	-1.289	35.734	4.126	0.486
277	0	10	-1.289	36.925	7.565	2.431
278	0	9	2.622	36.925	7.565	3.89
279	0	10	-1.289	36.925	6.189	4.377
280	0	9	2.622	36.925	4.814	4.863
281	0	10	-1.289	38.117	4.126	4.377
282	0	10	-1.289	35.734	4.126	4.377
283	0	9	2.622	36.925	4.814	7.781
284	0	10	-1.289	38.117	4.126	8.267
285	0	10	-1.289	35.734	4.126	8.267
286	0	10	-1.289	36.925	6.189	8.267
287	0	12	2.41	36.925	7.565	8.753
288	0	13	-0.818	36.925	7.565	10.212
289	0	10	-1.289	39.308	0.688	6.322
290	0	9	2.622	39.308	0.688	0
291	0	10	-1.289	39.308	2.063	0.486
292	0	9	2.622	39.308	3.439	0.973
293	0	10	-1.289	40.499	0	0.486
294	0	10	-1.289	38.117	0	0.486
295	0	10	-1.289	39.308	3.439	2.431
296	0	9	2.622	39.308	3.439	3.89
297	0	10	-1.289	39.308	2.063	4.377
298	0	9	2.622	39.308	0.688	4.863
299	0	10	-1.289	40.499	0	4.377
300	0	10	-1.289	38.117	0	4.377
301	0	9	2.622	39.308	0.688	7.781
302	0	10	-1.289	40.499	0	8.267
303	0	10	-1.289	38.117	0	8.267
304	0	10	-1.289	39.308	2.063	8.267
305	0	12	2.41	39.308	3.439	8.753
306	0	13	-0.818	39.308	3.439	10.212
307	0	10	-1.289	44.072	0.688	6.322
308	0	9	2.622	44.072	0.688	0
309	0	10	-1.289	44.072	2.063	0.486
310	0	9	2.622	44.072	3.439	0.973
311	0	10	-1.289	45.264	0	0.486
312	0	10	-1.289	42.881	0	0.486
313	0	10	-1.289	44.072	3.439	2.431
314	0	9	2.622	44.072	3.439	3.89
315	0	10	-1.289	44.072	2.063	4.377
316	0	9	2.622	44.072	0.688	4.863
317	0	10	-1.289	45.264	0	4.377
318	0	10	-1.289	42.881	0	4.377
319	0	9	2.622	44.072	0.688	7.781
320	0	10	-1.289	45.264	0	8.267
321	0	10	-1.289	42.881	0	8.267
322	0	10	-1.289	44.072	2.063	8.267
323	0	12	2.41	44.072	3.439	8.753
324	0	13	-0.818	44.072	3.439	10.212
325	0	10	-1.289	41.69	4.814	6.322
326	0	9	2.622	41.69	4.814	0
327	0	10	-1.289	41.69	6.189	0.486
328	0	9	2.622	41.69	7.565	0.973
329	0	10	-1.289	42.881	4.126	0.486
330	0	10	-1.289	40.499	4.126	0.486
331	0	10	-1.289	41.69	7.565	2.431
332	0	9	2.622	41.69	7.565	3.89
333	0	10	-1.289	41.69	6.189	4.377
334	0	9	2.622	41.69	4.814	4.863
335	0	10	-1.289	42.881	4.126	4.377
336	0	10	-1.289	40.499	4.126	4.377
337	0	9	2.622	41.69	4.814	7.781
338	0	10	-1.289	42.881	4.126	8.267
339	0	10	-1.289	40.499	4.126	8.267
340	0	10	-1.289	41.69	6.189	8.267
341	0	12	2.41	41.69	7.565	8.753
342	0	13	-0.818	41.69	7.565	10.212
343	0	10	-1.289	46.455	4.814	6.322
344	0	9	2.622	46.455	4.814	0
345	0	10	-1.289	46.455	6.189	0.486
346	0	9	2.622	46.455	7.565	0.973
347	0	10	-1.289	47.646	4.126	0.486
348	0	10	-1.289	45.264	4.126	0.486
349	0	10	-1.289	46.455	7.565	2.431
350	0	9	2.622	46.455	7.565	3.89
351	0	10	-1.289	46.455	6.189	4.377
352	0	9	2.622	46.455	4.814	4.863
353	0	10	-1.289	47.646	4.126	4.377
354	0	10	-1.289	45.264	4.126	4.377
355	0	9	2.622	46.455	4.814	7.781
356	0	10	-1.289	47.646	4.126	8.267
357	0	10	-1.289	45.264	4.126	8.267
358	0	10	-1.289	46.455	6.189	8.267
359	0	12	2.41	46.455	7.565	8.753
360	0	13	-0.818	46.455	7.565	10.212
361	0	10	-1.289	1.191	8.94	6.322
362	0	9	2.622	1.191	8.94	0
363	0	10	-1.289	1.191	10.316	0.486
364	0	9	2.622	1.191	11.691	0.973
365	0	10	-1.289	2.382	8.253	0.486
366	0	10	-1.289	0	8.253	0.486
367	0	10	-1.289	1.191	11.691	2.431
368	0	9	2.622	1.191	11.691	3.89
369	0	10	-1.289	1.191	10.316	4.377
370	0	9	2.622	1.191	8.94	4.863
371	0	10	-1.289	2.382	8.253	4.377
372	0	10	-1.289	0	8.253	4.377
373	0	9	2.622	1.191	8.94	7.781
374	0	10	-1.289	2.382	8.253	8.267
375	0	10	-1.289	0	8.253	8.267
376	0	10	-1.289	1.191	10.316	8.267
377	0	12	2.41	1.191	11.691	8.753
378	0	13	-0.818	1.191	11.691	10.212
379	0	10	-1.289	5.956	8.94	6.322
380	0	9	2.622	5.956	8.94	0
381	0	10	-1.289	5.956	10.316	0.486
382	0	9	2.622	5.956	11.691	0.973
383	0	10	-1.289	7.147	8.253	0.486
384	0	10	-1.289	4.765	8.253	0.486
385	0	10	-1.289	5.956	11.691	2.431
386	0	9	2.622	5.956	11.691	3.89
387	0	10	-1.289	5.956	10.316	4.377
388	0	9	2.622	5.956	8.94	4.863
389	0	10	-1.289	7.147	8.253	4.377
390	0	10	-1.289	4.765	8.253	4.377
391	0	9	2.622	5.956	8.94	7.781
392	0	10	-1.289	7.147	8.253	8.267
393	0	10	-1.289	4.765	8.253	8.267
394	0	10	-1.289	5.956	10.316	8.267
395	0	12	2.41	5.956	11.691	8.753
396	0	13	-0.818	5.956	11.691	10.212
397	0	10	-1.289	3.573	13.066	6.322
398	0	9	2.622	3.573	13.066	0
399	0	10	-1.289	3.573	14.442	0.486
400	0	9	2.622	3.573	15.817	0.973
401	0	10	-1.289	4.765	12.379	0.486
402	0	10	-1.289	2.382	12.379	0.486
403	0	10	-1.289	3.573	15.817	2.431
404	0	9	2.622	3.573	15.817	3.89
405	0	10	-1.289	3.573	14.442	4.377
406	0	9	2.622	3.573	13.066	4.863
407	0	10	-1.289	4.765	12.379	4.377
408	0	10	-1.289	2.382	12.379	4.377
409	0	9	2.622	3.573	13.066	7.781
410	0	10	-1.289	4.765	12.379	8.267
411	0	10	-1.289	2.382	12.379	8.267
412	0	10	-1.289	3.573	14.442	8.267
413	0	12	2.41	3.573	15.817	8.753
414	0	13	-0.818	3.573	15.817	10.212
415	0	10	-1.289	8.338	13.066	6.322
416	0	9	2.622	8.338	13.066	0
417	0	10	-1.289	8.338	14.442	0.486
418	0	9	2.622	8.338	15.817	0.973
419	0	10	-1.289	9.529	12.379	0.486
420	0	10	-1.289	7.147	12.379	0.486
421	0	10	-1.289	8.338	15.817	2.431
422	0	9	2.622	8.338	15.817	3.89
423	0	10	-1.289	8.338	14.442	4.377
424	0	9	2.622	8.338	13.066	4.863
425	0	10	-1.289	9.529	12.379	4.377
426	0	10	-1.289	7.147	12.379	4.377
427	0	9	2.622	8.338	13.066	7.781
428	0	10	-1.289	9.529	12.379	8.267
429	0	10	-1.289	7.147	12.379	8.267
430	0	10	-1.289	8.338	14.442	8.267
431	0	12	2.41	8.338	15.817	8.753
432	0	13	-0.818	8.338	15.817	10.212
433	0	10	-1.289	10.72	8.94	6.322
434	0	9	2.622	10.72	8.94	0
435	0	10	-1.289	10.72	10.316	0.486
436	0	9	2.622	10.72	11.691	0.973
437	0	10	-1.289	11.912	8.253	0.486
438	0	10	-1.289	9.529	8.253	0.486
439	0	10	-1.289	10.72	11.691	2.431
440	0	9	2.622	10.72	11.691	3.89
441	0	10	-1.289	10.72	10.316	4.377
442	0	9	2.622	10.72	8.94	4.863
443	0	10	-1.289	11.912	8.253	4.377
444	0	10	-1.289	9.529	8.253	4.377
445	0	9	2.622	10.72	8.94	7.781
446	0	10	-1.289	11.912	8.253	8.267
447	0	10	-1.289	9.529	8.253	8.267
448	0	10	-1.289	10.72	10.316	8.267
449	0	12	2.41	10.72	11.691	8.753
450	0	13	-0.818	10.72	11.691	10.212
451	0	10	-1.289	15.485	8.94	6.322
452	0	9	2.622	15.485	8.94	0
453	0	10	-1.289	15.485	10.316	0.486
454	0	9	2.622	15.485	11.691	0.973
455	0	10	-1.289	16.676	8.253	0.486
456	0	10	-1.289	14.294	8.253	0.486
457	0	10	-1.289	15.485	11.691	2.431
458	0	9	2.622	15.485	11.691	3.89
459	0	10	-1.289	15.485	10.316	4.377
460	0	9	2.622	15.485	8.94	4.863
461	0	10	-1.289	16.676	8.253	4.377
462	0	10	-1.289	14.294	8.253	4.377
463	0	9	2.622	15.485	8.94	7.781
464	0	10	-1.289	16.676	8.253	8.267
465	0	10	-1.289	14.294	8.253	8.267
466	0	10	-1.289	15.485	10.316	8.267
467	0	12	2.41	15.485	11.691	8.753
468	0	13	-0.818	15.485	11.691	10.212
469	0	10	-1.289	13.103	13.066	6.322
470	0	9	2.622	13.103	13.066	0
471	0	10	-1.289	13.103	14.442	0.486
472	0	9	2.622	13.103	15.817	0.973
473	0	10	-1.289	14.294	12.379	0.486
474	0	10	-1.289	11.912	12.379	0.486
475	0	10	-1.289	13.103	15.817	2.431
476	0	9	2.622	13.103	15.817	3.89
477	0	10	-1.289	13.103	14.442	4.377
478	0	9	2.622	13.103	13.066	4.863
479	0	10	-1.289	14.294	12.379	4.377
480	0	10	-1.289	11.912	12.379	4.377
481	0	9	2.622	13.103	13.066	7.781
482	0	10	-1.289	14.294	12.379	8.267
483	0	10	-1.289	11.912	12.379	8.267
484	0	10	-1.289	13.103	14.442	8.267
485	0	12	2.41	13.103	15.817	8.753
486	0	13	-0.818	13.103	15.817	10.212
487	0	10	-1.289	17.867	13.066	6.322
488	0	9	2.622	17.867	13.066	0
489	0	10	-1.289	17.867	14.442	0.486
490	0	9	2.622	17.867	15.817	0.973
491	0	10	-1.289	19.058	12.379	0.486
492	0	10	-1.289	16.676	12.379	0.486
493	0	10	-1.289	17.867	15.817	2.431
494	0	9	2.622	17.867	15.817	3.89
495	0	10	-1.289	17.867	14.442	4.377
496	0	9	2.622	17.867	13.066	4.863
497	0	10	-1.289	19.058	12.379	4.377
498	0	10	-1.289	16.676	12.379	4.377
499	0	9	2.622	17.867	13.066	7.781
500	0	10	-1.289	19.058	12.379	8.267
501	0	10	-1.289	16.676	12.379	8.267
502	0	10	-1.289	17.867	14.442	8.267
503	0	12	2.41	17.867	15.817	8.753
504	0	13	-0.818	17.867	15.817	10.212
505	0	10	-1.289	20.25	8.94	6.322
506	0	9	2.622	20.25	8.94	0
507	0	10	-1.289	20.25	10.316	0.486
508	0	9	2.622	20.25	11.691	0.973
509	0	10	-1.289	21.441	8.253	0.486
510	0	10	-1.289	19.058	8.253	0.486
511	0	10	-1.289	20.25	11.691	2.431
512	0	9	2.622	20.25	11.691	3.89
513	0	10	-1.289	20.25	10.316	4.377
514	0	9	2.622	20.25	8.94	4.863
515	0	10	-1.289	21.441	8.253	4.377
516	0	10	-1.289	19.058	8.253	4.377
517	0	9	2.622	20.25	8.94	7.781
518	0	10	-1.289	21.441	8.253	8.267
519	0	10	-1.289	19.058	8.253	8.267
520	0	10	-1.289	20.25	10.316	8.267
521	0	12	2.41	20.25	11.691	8.753
522	0	13	-0.818	20.25	11.691	10.212
523	0	10	-1.289	25.014	8.94	6.322
524	0	9	2.622	25.014	8.94	0
525	0	10	-1.289	25.014	10.316	0.486
526	0	9	2.622	25.014	11.691	0.973
527	0	10	-1.289	26.205	8.253	0.486
528	0	10	-1.289	23.823	8.253	0.486
529	0	10	-1.289	25.014	11.691	2.431
530	0	9	2.622	25.014	11.691	3.89
531	0	10	-1.289	25.014	10.316	4.377
532	0	9	2.622	25.014	8.94	4.863
533	0	10	-1.289	26.205	8.253	4.377
534	0	10	-1.289	23.823	8.253	4.377
535	0	9	2.622	25.014	8.94	7.781
536	0	10	-1.289	26.205	8.253	8.267
537	0	10	-1.289	23.823	8.253	8.267
538	0	10	-1.289	25.014	10.316	8.267
539	0	12	2.41	25.014	11.691	8.753
540	0	13	-0.818	25.014	11.691	10.212
541	0	10	-1.289	22.632	13.066	6.322
542	0	9	2.622	22.632	13.066	0
543	0	10	-1.289	22.632	14.442	0.486
544	0	9	2.622	22.632	15.817	0.973
545	0	10	-1.289	23.823	12.379	0.486
546	0	10	-1.289	21.441	12.379	0.486
547	0	10	-1.289	22.632	15.817	2.431
548	0	9	2.622	22.632	15.817	3.89
549	0	10	-1.289	22.632	14.442	4.377
550	0	9	2.622	22.632	13.066	4.863
551	0	10	-1.289	23.823	12.379	4.377
552	0	10	-1.289	21.441	12.379	4.377
553	0	9	2.622	22.632	13.066	7.781
554	0	10	-1.289	23.823	12.379	8.267
555	0	10	-1.289	21.441	12.379	8.267
556	0	10	-1.289	22.632	14.442	8.267
557	0	12	2.41	22.632	15.817	8.753
558	0	13	-0.818	22.632	15.817	10.212
559	0	10	-1.289	27.396	13.066	6.322
560	0	9	2.622	27.396	13.066	0
561	0	10	-1.289	27.396	14.442	0.486
562	0	9	2.622	27.396	15.817	0.973
563	0	10	-1.289	28.587	12.379	0.486
564	0	10	-1.289	26.205	12.379	0.486
565	0	10	-1.289	27.396	15.817	2.431
566	0	9	2.622	27.396	15.817	3.89
567	0	10	-1.289	27.396	14.442	4.377
568	0	9	2.622	27.396	13.066	4.863
569	0	10	-1.289	28.587	12.379	4.377
570	0	10	-1.289	26.205	12.379	4.377
571	0	9	2.622	27.396	13.066	7.781
572	0	10	-1.289	28.587	12.379	8.267
573	0	10	-1.289	26.205	12.379	8.267
574	0	10	-1.289	27.396	14.442	8.267
575	0	12	2.41	27.396	15.817	8.753
576	0	13	-0.818	27.396	15.817	10.212
577	0	10	-1.289	29.779	8.94	6.322
578	0	9	2.622	29.779	8.94	0
579	0	10	-1.289	29.779	10.316	0.486
580	0	9	2.622	29.779	11.691	0.973
581	0	10	-1.289	30.97	8.253	0.486
582	0	10	-1.289	28.587	8.253	0.486
583	0	10	-1.289	29.779	11.691	2.431
584	0	9	2.622	29.779	11.691	3.89
585	0	10	-1.289	29.779	10.316	4.377
586	0	9	2.622	29.779	8.94	4.863
587	0	10	-1.289	30.97	8.253	4.377
588	0	10	-1.289	28.587	8.253	4.377
589	0	9	2.622	29.779	8.94	7.781
590	0	10	-1.289	30.97	8.253	8.267
591	0	10	-1.289	28.587	8.253	8.267
592	0	10	-1.289	29.779	10.316	8.267
593	0	12	2.41	29.779	11.691	8.753
594	0	13	-0.818	29.779	11.691	10.212
595	0	10	-1.289	34.543	8.94	6.322
596	0	9	2.622	34.543	8.94	0
597	0	10	-1.289	34.543	10.316	0.486
598	0	9	2.622	34.543	11.691	0.973
599	0	10	-1.289	35.734	8.253	0.486
600	0	10	-1.289	33.352	8.253	0.486
601	0	10	-1.289	34.543	11.691	2.431
602	0	9	2.622	34.543	11.691	3.89
603	0	10	-1.289	34.543	10.316	4.377
604	0	9	2.622	34.543	8.94	4.863
605	0	10	-1.289	35.734	8.253	4.377
606	0	10	-1.289	33.352	8.253	4.377
607	0	9	2.622	34.543	8.94	7.781
608	0	10	-1.289	35.734	8.253	8.267
609	0	10	-1.289	33.352	8.253	8.267
610	0	10	-1.289	34.543	10.316	8.267
611	0	12	2.41	34.543	11.691	8.753
612	0	13	-0.818	34.543	11.691	10.212
613	0	10	-1.289	32.161	13.066	6.322
614	0	9	2.622	32.161	13.066	0
615	0	10	-1.289	32.161	14.442	0.486
616	0	9	2.622	32.161	15.817	0.973
617	0	10	-1.289	33.352	12.379	0.486
618	0	10	-1.289	30.97	12.379	0.486
619	0	10	-1.289	32.161	15.817	2.431
620	0	9	2.622	32.161	15.817	3.89
621	0	10	-1.289	32.161	14.442	4.377
622	0	9	2.622	32.161	13.066	4.863
623	0	10	-1.289	33.352	12.379	4.377
624	0	10	-1.289	30.97	12.379	4.377
625	0	9	2.622	32.161	13.066	7.781
626	0	10	-1.289	33.352	12.379	8.267
627	0	10	-1.289	30.97	12.379	8.267
628	0	10	-1.289	32.161	14.442	8.267
629	0	12	2.41	32.161	15.817	8.753
630	0	13	-0.818	32.161	15.817	10.212
631	0	10	-1.289	36.925	13.066	6.322
632	0	9	2.622	36.925	13.066	0
633	0	10	-1.289	36.925	14.442	0.486
634	0	9	2.622	36.925	15.817	0.973
635	0	10	-1.289	38.117	12.379	0.486
636	0	10	-1.289	35.734	12.379	0.486
637	0	10	-1.289	36.925	15.817	2.431
638	0	9	2.622	36.925	15.817	3.89
639	0	10	-1.289	36.925	14.442	4.377
640	0	9	2.622	36.925	13.066	4.863
641	0	10	-1.289	38.117	12.379	4.377
642	0	10	-1.289	35.734	12.379	4.377
643	0	9	2.622	36.925	13.066	7.781
644	0	10	-1.289	38.117	12.379	8.267
645	0	10	-1.289	35.734	12.379	8.267
646	0	10	-1.289	36.925	14.442	8.267
647	0	12	2.41	36.925	15.817	8.753
648	0	13	-0.818	36.925	15.817	10.212
649	0	10	-1.289	39.308	8.94	6.322
650	0	9	2.622	39.308	8.94	0
651	0	10	-1.289	39.308	10.316	0.486
652	0	9	2.622	39.308	11.691	0.973
653	0	10	-1.289	40.499	8.253	0.486
654	0	10	-1.289	38.117	8.253	0.486
655	0	10	-1.289	39.308	11.691	2.431
656	0	9	2.622	39.308	11.691	3.89
657	0	10	-1.289	39.308	10.316	4.377
658	0	9	2.622	39.308	8.94	4.863
659	0	10	-1.289	40.499	8.253	4.377
660	0	10	-1.289	38.117	8.253	4.377
661	0	9	2.622	39.308	8.94	7.781
662	0	10	-1.289	40.499	8.253	8.267
663	0	10	-1.289	38.117	8.253	8.267
664	0	10	-1.289	39.308	10.316	8.267
665	0	12	2.41	39.308	11.691	8.753
666	0	13	-0.818	39.308	11.691	10.212
667	0	10	-1.289	44.072	8.94	6.322
668	0	9	2.622	44.072	8.94	0
669	0	10	-1.289	44.072	10.316	0.486
670	0	9	2.622	44.072	11.691	0.973
671	0	10	-1.289	45.264	8.253	0.486
672	0	10	-1.289	42.881	8.253	0.486
673	0	10	-1.289	44.072	11.691	2.431
674	0	9	2.622	44.072	11.691	3.89
675	0	10	-1.289	44.072	10.316	4.377
676	0	9	2.622	44.072	8.94	4.863
677	0	10	-1.289	45.264	8.253	4.377
678	0	10	-1.289	42.881	8.253	4.377
679	0	9	2.622	44.072	8.94	7.781
680	0	10	-1.289	45.264	8.253	8.267
681	0	10	-1.289	42.881	8.253	8.267
682	0	10	-1.289	44.072	10.316	8.267
683	0	12	2.41	44.072	11.691	8.753
684	0	13	-0.818	44.072	11.691	10.212
685	0	10	-1.289	41.69	13.066	6.322
686	0	9	2.622	41.69	13.066	0
687	0	10	-1.289	41.69	14.442	0.486
688	0	9	2.622	41.69	15.817	0.973
689	0	10	-1.289	42.881	12.379	0.486
690	0	10	-1.289	40.499	12.379	0.486
691	0	10	-1.289	41.69	15.817	2.431
692	0	9	2.622	41.69	15.817	3.89
693	0	10	-1.289	41.69	14.442	4.377
694	0	9	2.622	41.69	13.066	4.863
695	0	10	-1.289	42.881	12.379	4.377
696	0	10	-1.289	40.499	12.379	4.377
697	0	9	2.622	41.69	13.066	7.781
698	0	10	-1.289	42.881	12.379	8.267
699	0	10	-1.289	40.499	12.379	8.267
700	0	10	-1.289	41.69	14.442	8.267
701	0	12	2.41	41.69	15.817	8.753
702	0	13	-0.818	41.69	15.817	10.212
703	0	10	-1.289	46.455	13.066	6.322
704	0	9	2.622	46.455	13.066	0
705	0	10	-1.289	46.455	14.442	0.486
706	0	9	2.622	46.455	15.817	0.973
707	0	10	-1.289	47.646	12.379	0.486
708	0	10	-1.289	45.264	12.379	0.486
709	0	10	-1.289	46.455	15.817	2.431
710	0	9	2.622	46.455	15.817	3.89
711	0	10	-1.289	46.455	14.442	4.377
712	0	9	2.622	46.455	13.066	4.863
713	0	10	-1.289	47.646	12.379	4.377
714	0	10	-1.289	45.264	12.379	4.377
715	0	9	2.622	46.455	13.066	7.781
716	0	10	-1.289	47.646	12.379	8.267
717	0	10	-1.289	45.264	12.379	8.267
718	0	10	-1.289	46.455	14.442	8.267
719	0	12	2.41	46.455	15.817	8.753
720	0	13	-0.818	46.455	15.817	10.212
721	0	10	-1.289	1.191	17.193	6.322
722	0	9	2.622	1.191	17.193	0
723	0	10	-1.289	1.191	18.568	0.486
724	0	9	2.622	1.191	19.944	0.973
725	0	10	-1.289	2.382	16.505	0.486
726	0	10	-1.289	0	16.505	0.486
727	0	10	-1.289	1.191	19.944	2.431
728	0	9	2.622	1.191	19.944	3.89
729	0	10	-1.289	1.191	18.568	4.377
730	0	9	2.622	1.191	17.193	4.863
731	0	10	-1.289	2.382	16.505	4.377
732	0	10	-1.289	0	16.505	4.377
733	0	9	2.622	1.191	17.193	7.781
734	0	10	-1.289	2.382	16.505	8.267
735	0	10	-1.289	0	16.505	8.267
736	0	10	-1.289	1.191	18.568	8.267
737	0	12	2.41	1.191	19.944	8.753
738	0	13	-0.818	1.191	19.944	10.212
739	0	10	-1.289	5.956	17.193	6.322
740	0	9	2.622	5.956	17.193	0
741	0	10	-1.289	5.956	18.568	0.486
742	0	9	2.622	5.956	19.944	0.973
743	0	10	-1.289	7.147	16.505	0.486
744	0	10	-1.289	4.765	16.505	0.486
745	0	10	-1.289	5.956	19.944	2.431
746	0	9	2.622	5.956	19.944	3.89
747	0	10	-1.289	5.956	18.568	4.377
748	0	9	2.622	5.956	17.193	4.863
749	0	10	-1.289	7.147	16.505	4.377
750	0	10	-1.289	4.765	16.505	4.377
751	0	9	2.622	5.956	17.193	7.781
752	0	10	-1.289	7.147	16.505	8.267
753	0	10	-1.289	4.765	16.505	8.267
754	0	10	-1.289	5.956	18.568	8.267
755	0	12	2.41	5.956	19.944	8.753
756	0	13	-0.818	5.956	19.944	10.212
757	0	10	-1.289	3.573	21.319	6.322
758	0	9	2.622	3.573	21.319	0
759	0	10	-1.289	3.573	22.694	0.486
760	0	9	2.622	3.573	24.07	0.973
761	0	10	-1.289	4.765	20.631	0.486
762	0	10	-1.289	2.382	20.631	0.486
763	0	10	-1.289	3.573	24.07	2.431
764	0	9	2.622	3.573	24.07	3.89
765	0	10	-1.289	3.573	22.694	4.377
766	0	9	2.622	3.573	21.319	4.863
767	0	10	-1.289	4.765	20.631	4.377
768	0	10	-1.289	2.382	20.631	4.377
769	0	9	2.622	3.573	21.319	7.781
770	0	10	-1.289	4.765	20.631	8.267
771	0	10	-1.289	2.382	20.631	8.267
772	0	10	-1.289	3.573	22.694	8.267
773	0	12	2.41	3.573	24.07	8.753
774	0	13	-0.818	3.573	24.07	10.212
775	0	10	-1.289	8.338	21.319	6.322
776	0	9	2.622	8.338	21.319	0
777	0	10	-1.289	8.338	22.694	0.486
778	0	9	2.622	8.338	24.07	0.973
779	0	10	-1.289	9.529	20.631	0.486
780	0	10	-1.289	7.147	20.631	0.486
781	0	10	-1.289	8.338	24.07	2.431
782	0	9	2.622	8.338	24.07	3.89
783	0	10	-1.289	8.338	22.694	4.377
784	0	9	2.622	8.338	21.319	4.863
785	0	10	-1.289	9.529	20.631	4.377
786	0	10	-1.289	7.147	20.631	4.377
787	0	9	2.622	8.338	21.319	7.781
788	0	10	-1.289	9.529	20.631	8.267
789	0	10	-1.289	7.147	20.631	8.267
790	0	10	-1.289	8.338	22.694	8.267
791	0	12	2.41	8.338	24.07	8.753
792	0	13	-0.818	8.338	24.07	10.212
793	0	10	-1.289	10.72	17.193	6.322
794	0	9	2.622	10.72	17.193	0
795	0	10	-1.289	10.72	18.568	0.486
796	0	9	2.622	10.72	19.944	0.973
797	0	10	-1.289	11.912	16.505	0.486
798	0	10	-1.289	9.529	16.505	0.486
799	0	10	-1.289	10.72	19.944	2.431
800	0	9	2.622	10.72	19.944	3.89
801	0	10	-1.289	10.72	18.568	4.377
802	0	9	2.622	10.72	17.193	4.863
803	0	10	-1.289	11.912	16.505	4.377
804	0	10	-1.289	9.529	16.505	4.377
805	0	9	2.622	10.72	17.193	7.781
806	0	10	-1.289	11.912	16.505	8.267
807	0	10	-1.289	9.529	16.505	8.267
808	0	10	-1.289	10.72	18.568	8.267
809	0	12	2.41	10.72	19.944	8.753
810	0	13	-0.818	10.72	19.944	10.212
811	0	10	-1.289	15.485	17.193	6.322
812	0	9	2.622	15.485	17.193	0
813	0	10	-1.289	15.485	18.568	0.486
814	0	9	2.622	15.485	19.944	0.973
815	0	10	-1.289	16.676	16.505	0.486
816	0	10	-1.289	14.294	16.505	0.486
817	0	10	-1.289	15.485	19.944	2.431
818	0	9	2.622	15.485	19.944	3.89
819	0	10	-1.289	15.485	18.568	4.377
820	0	9	2.622	15.485	17.193	4.863
821	0	10	-1.289	16.676	16.505	4.377
822	0	10	-1.289	14.294	16.505	4.377
823	0	9	2.622	15.485	17.193	7.781
824	0	10	-1.289	16.676	16.505	8.267
825	0	10	-1.289	14.294	16.505	8.267
826	0	10	-1.289	15.485	18.568	8.267
827	0	12	2.41	15.485	19.944	8.753
828	0	13	-0.818	15.485	19.944	10.212
829	0	10	-1.289	13.103	21.319	6.322
830	0	9	2.622	13.103	21.319	0
831	0	10	-1.289	13.103	22.694	0.486
832	0	9	2.622	13.103	24.07	0.973
833	0	10	-1.289	14.294	20.631	0.486
834	0	10	-1.289	11.912	20.631	0.486
835	0	10	-1.289	13.103	24.07	2.431
836	0	9	2.622	13.103	24.07	3.89
837	0	10	-1.289	13.103	22.694	4.377
838	0	9	2.622	13.103	21.319	4.863
839	0	10	-1.289	14.294	20.631	4.377
840	0	10	-1.289	11.912	20.631	4.377
841	0	9	2.622	13.103	21.319	7.781
842	0	10	-1.289	14.294	20.631	8.267
843	0	10	-1.289	11.912	20.631	8.267
844	0	10	-1.289	13.103	22.694	8.267
845	0	12	2.41	13.103	24.07	8.753
846	0	13	-0.818	13.103	24.07	10.212
847	0	10	-1.289	17.867	21.319	6.322
848	0	9	2.622	17.867	21.319	0
849	0	10	-1.289	17.867	22.694	0.486
850	0	9	2.622	17.867	24.07	0.973
851	0	10	-1.289	19.058	20.631	0.486
852	0	10	-1.289	16.676	20.631	0.486
853	0	10	-1.289	17.867	24.07	2.431
854	0	9	2.622	17.867	24.07	3.89
855	0	10	-1.289	17.867	22.694	4.377
856	0	9	2.622	17.867	21.319	4.863
857	0	10	-1.289	19.058	20.631	4.377
858	0	10	-1.289	16.676	20.631	4.377
859	0	9	2.622	17.867	21.319	7.781
860	0	10	-1.289	19.058	20.631	8.267
861	0	10	-1.289	16.676	20.631	8.267
862	0	10	-1.289	17.867	22.694	8.267
863	0	12	2.41	17.867	24.07	8.753
864	0	13	-0.818	17.867	24.07	10.212
865	0	10	-1.289	20.25	17.193	6.322
866	0	9	2.622	20.25	17.193	0
867	0	10	-1.289	20.25	18.568	0.486
868	0	9	2.622	20.25	19.944	0.973
869	0	10	-1.289	21.441	16.505	0.486
870	0	10	-1.289	19.058	16.505	0.486
871	0	10	-1.289	20.25	19.944	2.431
872	0	9	2.622	20.25	19.944	3.89
873	0	10	-1.289	20.25	18.568	4.377
874	0	9	2.622	20.25	17.193	4.863
875	0	10	-1.289	21.441	16.505	4.377
876	0	10	-1.289	19.058	16.505	4.377
877	0	9	2.622	20.25	17.193	7.781
878	0	10	-1.289	21.441	16.505	8.267
879	0	10	-1.289	19.058	16.505	8.267
880	0	10	-1.289	20.25	18.568	8.267