ITEM: TIMESTEP
0
ITEM: NUMBER OF ATOMS
4360
ITEM: BOX BOUNDS pp pp ff
0 47.6892
0 41.3
-30 68
ITEM: ATOMS id type x y z 
2017 10 7.19 0 -7.294 
2030 10 2.425 0 -7.294 
2031 10 4.808 0 -7.294 
3072 10 3.617 6.227 -7.294 
3073 9 3.617 4.851 -7.78 
3074 10 3.617 4.851 -9.239 
3082 9 5.999 3.476 -6.808 
3083 10 4.808 4.164 -7.294 
3084 10 7.19 4.164 -7.294 
3085 10 5.999 2.101 -7.294 
3086 9 5.999 0.725 -7.78 
3087 10 5.999 0.725 -9.239 
3095 9 1.234 3.476 -6.808 
3096 10 0.043 4.164 -7.294 
3097 10 2.425 4.164 -7.294 
3098 10 1.234 2.101 -7.294 
3099 9 1.234 0.725 -7.78 
3100 10 1.234 0.725 -9.239 
3192 11 3.617 4.014 -10.434 
1978 10 11.955 0 -7.294 
1979 10 14.337 0 -7.294 
2018 10 9.572 0 -7.294 
3020 10 13.146 6.227 -7.294 
3021 9 13.146 4.851 -7.78 
3022 10 13.146 4.851 -9.239 
3030 9 15.528 3.476 -6.808 
3031 10 14.337 4.164 -7.294 
3033 10 15.528 2.101 -7.294 
3034 9 15.528 0.725 -7.78 
3035 10 15.528 0.725 -9.239 
3043 9 10.764 3.476 -6.808 
3044 10 9.572 4.164 -7.294 
3045 10 11.955 4.164 -7.294 
3046 10 10.764 2.101 -7.294 
3047 9 10.764 0.725 -7.78 
3048 10 10.764 0.725 -9.239 
3059 10 8.381 6.227 -7.294 
3060 9 8.381 4.851 -7.78 
3061 10 8.381 4.851 -9.239 
3106 11 13.146 4.014 -10.434 
3164 11 8.381 4.014 -10.434 
1926 10 21.484 0 -7.294 
1965 10 16.719 0 -7.294 
1966 10 19.102 0 -7.294 
2968 10 22.675 6.227 -7.294 
2969 9 22.675 4.851 -7.78 
2970 10 22.675 4.851 -9.239 
2991 9 20.293 3.476 -6.808 
2992 10 19.102 4.164 -7.294 
2993 10 21.484 4.164 -7.294 
2994 10 20.293 2.101 -7.294 
2995 9 20.293 0.725 -7.78 
2996 10 20.293 0.725 -9.239 
3007 10 17.91 6.227 -7.294 
3008 9 17.91 4.851 -7.78 
3009 10 17.91 4.851 -9.239 
3032 10 16.719 4.164 -7.294 
3156 11 22.675 4.014 -10.434 
3175 11 17.91 4.014 -10.434 
2813 9 3.617 13.104 -7.78 
2814 10 3.617 13.104 -9.239 
2822 9 5.999 11.728 -6.808 
2823 10 4.808 12.416 -7.294 
2824 10 7.19 12.416 -7.294 
2825 10 5.999 10.353 -7.294 
2826 9 5.999 8.978 -7.78 
2827 10 5.999 8.978 -9.239 
2835 9 1.234 11.728 -6.808 
2836 10 0.043 12.416 -7.294 
2837 10 2.425 12.416 -7.294 
2838 10 1.234 10.353 -7.294 
2839 9 1.234 8.978 -7.78 
2840 10 1.234 8.978 -9.239 
3057 10 7.19 8.29 -7.294 
3069 9 3.617 7.602 -6.808 
3070 10 2.425 8.29 -7.294 
3071 10 4.808 8.29 -7.294 
3108 11 5.999 8.141 -10.434 
3173 11 3.617 12.267 -10.434 
3187 11 1.234 8.141 -10.434 
2761 9 13.146 13.104 -7.78 
2762 10 13.146 13.104 -9.239 
2770 9 15.528 11.728 -6.808 
2771 10 14.337 12.416 -7.294 
2773 10 15.528 10.353 -7.294 
2774 9 15.528 8.978 -7.78 
2775 10 15.528 8.978 -9.239 
2783 9 10.764 11.728 -6.808 
2784 10 9.572 12.416 -7.294 
2785 10 11.955 12.416 -7.294 
2786 10 10.764 10.353 -7.294 
2787 9 10.764 8.978 -7.78 
2788 10 10.764 8.978 -9.239 
2800 9 8.381 13.104 -7.78 
2801 10 8.381 13.104 -9.239 
3017 9 13.146 7.602 -6.808 
3018 10 11.955 8.29 -7.294 
3019 10 14.337 8.29 -7.294 
3056 9 8.381 7.602 -6.808 
3058 10 9.572 8.29 -7.294 
3101 11 15.528 8.141 -10.434 
3107 11 10.764 8.141 -10.434 
3127 11 13.146 12.267 -10.434 
3190 11 8.381 12.267 -10.434 
2709 9 22.675 13.104 -7.78 
2710 10 22.675 13.104 -9.239 
2731 9 20.293 11.728 -6.808 
2732 10 19.102 12.416 -7.294 
2733 10 21.484 12.416 -7.294 
2734 10 20.293 10.353 -7.294 
2735 9 20.293 8.978 -7.78 
2736 10 20.293 8.978 -9.239 
2748 9 17.91 13.104 -7.78 
2749 10 17.91 13.104 -9.239 
2772 10 16.719 12.416 -7.294 
2965 9 22.675 7.602 -6.808 
2966 10 21.484 8.29 -7.294 
3004 9 17.91 7.602 -6.808 
3005 10 16.719 8.29 -7.294 
3006 10 19.102 8.29 -7.294 
3144 11 20.293 8.141 -10.434 
3153 11 17.91 12.267 -10.434 
3169 11 22.675 12.267 -10.434 
2562 9 5.999 19.981 -6.808 
2565 10 5.999 18.606 -7.294 
2566 9 5.999 17.23 -7.78 
2567 10 5.999 17.23 -9.239 
2575 9 1.234 19.981 -6.808 
2578 10 1.234 18.606 -7.294 
2579 9 1.234 17.23 -7.78 
2580 10 1.234 17.23 -9.239 
2797 10 7.19 16.542 -7.294 
2809 9 3.617 15.855 -6.808 
2810 10 2.425 16.542 -7.294 
2811 10 4.808 16.542 -7.294 
2812 10 3.617 14.479 -7.294 
3149 11 3.617 20.519 -10.434 
3155 11 5.999 16.393 -10.434 
3167 11 1.234 16.393 -10.434 
2510 9 15.528 19.981 -6.808 
2513 10 15.528 18.606 -7.294 
2514 9 15.528 17.23 -7.78 
2515 10 15.528 17.23 -9.239 
2523 9 10.764 19.981 -6.808 
2526 10 10.764 18.606 -7.294 
2527 9 10.764 17.23 -7.78 
2528 10 10.764 17.23 -9.239 
2757 9 13.146 15.855 -6.808 
2758 10 11.955 16.542 -7.294 
2759 10 14.337 16.542 -7.294 
2760 10 13.146 14.479 -7.294 
2796 9 8.381 15.855 -6.808 
2798 10 9.572 16.542 -7.294 
2799 10 8.381 14.479 -7.294 
3120 11 8.381 20.519 -10.434 
3158 11 15.528 16.393 -10.434 
3160 11 13.146 20.519 -10.434 
3200 11 10.764 16.393 -10.434 
2471 9 20.293 19.981 -6.808 
2474 10 20.293 18.606 -7.294 
2475 9 20.293 17.23 -7.78 
2476 10 20.293 17.23 -9.239 
2705 9 22.675 15.855 -6.808 
2706 10 21.484 16.542 -7.294 
2708 10 22.675 14.479 -7.294 
2744 9 17.91 15.855 -6.808 
2745 10 16.719 16.542 -7.294 
2746 10 19.102 16.542 -7.294 
2747 10 17.91 14.479 -7.294 
3124 11 17.91 20.519 -10.434 
3132 11 20.293 16.393 -10.434 
3145 11 22.675 20.519 -10.434 
2 9 1.191 0.688 0 
3 10 1.191 2.063 0.486 
5 10 2.382 0 0.486 
6 10 0 0 0.486 
20 9 5.956 0.688 0 
21 10 5.956 2.063 0.486 
23 10 7.147 0 0.486 
24 10 4.765 0 0.486 
38 9 3.573 4.814 0 
39 10 3.573 6.189 0.486 
41 10 4.765 4.126 0.486 
42 10 2.382 4.126 0.486 
60 10 7.147 4.126 0.486 
2014 10 7.19 0 -3.404 
2027 10 2.425 0 -3.404 
2028 10 4.808 0 -3.404 
3063 10 3.617 4.851 -1.458 
3064 9 3.617 4.851 -2.917 
3065 10 3.617 6.227 -3.404 
3075 10 5.999 3.476 -5.349 
3076 10 5.999 0.725 -1.458 
3077 9 5.999 0.725 -2.917 
3078 10 5.999 2.101 -3.404 
3079 9 5.999 3.476 -3.89 
3080 10 4.808 4.164 -3.404 
3081 10 7.19 4.164 -3.404 
3088 10 1.234 3.476 -5.349 
3089 10 1.234 0.725 -1.458 
3090 9 1.234 0.725 -2.917 
3091 10 1.234 2.101 -3.404 
3092 9 1.234 3.476 -3.89 
3093 10 0.043 4.164 -3.404 
3094 10 2.425 4.164 -3.404 
56 9 8.338 4.814 0 
57 10 8.338 6.189 0.486 
59 10 9.529 4.126 0.486 
74 9 10.72 0.688 0 
75 10 10.72 2.063 0.486 
77 10 11.912 0 0.486 
78 10 9.529 0 0.486 
92 9 15.485 0.688 0 
93 10 15.485 2.063 0.486 
96 10 14.294 0 0.486 
110 9 13.103 4.814 0 
111 10 13.103 6.189 0.486 
113 10 14.294 4.126 0.486 
114 10 11.912 4.126 0.486 
1975 10 11.955 0 -3.404 
1976 10 14.337 0 -3.404 
2015 10 9.572 0 -3.404 
3011 10 13.146 4.851 -1.458 
3012 9 13.146 4.851 -2.917 
3013 10 13.146 6.227 -3.404 
3023 10 15.528 3.476 -5.349 
3024 10 15.528 0.725 -1.458 
3025 9 15.528 0.725 -2.917 
3026 10 15.528 2.101 -3.404 
3027 9 15.528 3.476 -3.89 
3028 10 14.337 4.164 -3.404 
3036 10 10.764 3.476 -5.349 
3037 10 10.764 0.725 -1.458 
3038 9 10.764 0.725 -2.917 
3039 10 10.764 2.101 -3.404 
3040 9 10.764 3.476 -3.89 
3041 10 9.572 4.164 -3.404 
3042 10 11.955 4.164 -3.404 
3050 10 8.381 4.851 -1.458 
3051 9 8.381 4.851 -2.917 
3052 10 8.381 6.227 -3.404 
95 10 16.676 0 0.486 
128 9 17.867 4.814 0 
129 10 17.867 6.189 0.486 
131 10 19.058 4.126 0.486 
132 10 16.676 4.126 0.486 
146 9 20.25 0.688 0 
147 10 20.25 2.063 0.486 
149 10 21.441 0 0.486 
150 10 19.058 0 0.486 
168 10 23.823 0 0.486 
182 9 22.632 4.814 0 
183 10 22.632 6.189 0.486 
185 10 23.823 4.126 0.486 
186 10 21.441 4.126 0.486 
1923 10 21.484 0 -3.404 
1962 10 16.719 0 -3.404 
1963 10 19.102 0 -3.404 
2959 10 22.675 4.851 -1.458 
2960 9 22.675 4.851 -2.917 
2961 10 22.675 6.227 -3.404 
2984 10 20.293 3.476 -5.349 
2985 10 20.293 0.725 -1.458 
2986 9 20.293 0.725 -2.917 
2987 10 20.293 2.101 -3.404 
2988 9 20.293 3.476 -3.89 
2989 10 19.102 4.164 -3.404 
2990 10 21.484 4.164 -3.404 
2998 10 17.91 4.851 -1.458 
2999 9 17.91 4.851 -2.917 
3000 10 17.91 6.227 -3.404 
3029 10 16.719 4.164 -3.404 
362 9 1.191 8.94 0 
363 10 1.191 10.316 0.486 
365 10 2.382 8.253 0.486 
366 10 0 8.253 0.486 
380 9 5.956 8.94 0 
381 10 5.956 10.316 0.486 
383 10 7.147 8.253 0.486 
384 10 4.765 8.253 0.486 
398 9 3.573 13.066 0 
401 10 4.765 12.379 0.486 
402 10 2.382 12.379 0.486 
420 10 7.147 12.379 0.486 
2803 10 3.617 13.104 -1.458 
2804 9 3.617 13.104 -2.917 
2815 10 5.999 11.728 -5.349 
2816 10 5.999 8.978 -1.458 
2817 9 5.999 8.978 -2.917 
2818 10 5.999 10.353 -3.404 
2819 9 5.999 11.728 -3.89 
2820 10 4.808 12.416 -3.404 
2821 10 7.19 12.416 -3.404 
2828 10 1.234 11.728 -5.349 
2829 10 1.234 8.978 -1.458 
2830 9 1.234 8.978 -2.917 
2831 10 1.234 10.353 -3.404 
2832 9 1.234 11.728 -3.89 
2833 10 0.043 12.416 -3.404 
2834 10 2.425 12.416 -3.404 
3054 10 7.19 8.29 -3.404 
3062 10 3.617 7.602 -5.349 
3066 9 3.617 7.602 -3.89 
3067 10 2.425 8.29 -3.404 
3068 10 4.808 8.29 -3.404 
416 9 8.338 13.066 0 
419 10 9.529 12.379 0.486 
434 9 10.72 8.94 0 
435 10 10.72 10.316 0.486 
437 10 11.912 8.253 0.486 
438 10 9.529 8.253 0.486 
452 9 15.485 8.94 0 
453 10 15.485 10.316 0.486 
456 10 14.294 8.253 0.486 
470 9 13.103 13.066 0 
473 10 14.294 12.379 0.486 
474 10 11.912 12.379 0.486 
2751 10 13.146 13.104 -1.458 
2752 9 13.146 13.104 -2.917 
2763 10 15.528 11.728 -5.349 
2764 10 15.528 8.978 -1.458 
2765 9 15.528 8.978 -2.917 
2766 10 15.528 10.353 -3.404 
2767 9 15.528 11.728 -3.89 
2768 10 14.337 12.416 -3.404 
2776 10 10.764 11.728 -5.349 
2777 10 10.764 8.978 -1.458 
2778 9 10.764 8.978 -2.917 
2779 10 10.764 10.353 -3.404 
2780 9 10.764 11.728 -3.89 
2781 10 9.572 12.416 -3.404 
2782 10 11.955 12.416 -3.404 
2790 10 8.381 13.104 -1.458 
2791 9 8.381 13.104 -2.917 
3010 10 13.146 7.602 -5.349 
3014 9 13.146 7.602 -3.89 
3015 10 11.955 8.29 -3.404 
3016 10 14.337 8.29 -3.404 
3049 10 8.381 7.602 -5.349 
3053 9 8.381 7.602 -3.89 
3055 10 9.572 8.29 -3.404 
455 10 16.676 8.253 0.486 
488 9 17.867 13.066 0 
491 10 19.058 12.379 0.486 
492 10 16.676 12.379 0.486 
506 9 20.25 8.94 0 
507 10 20.25 10.316 0.486 
509 10 21.441 8.253 0.486 
510 10 19.058 8.253 0.486 
528 10 23.823 8.253 0.486 
542 9 22.632 13.066 0 
545 10 23.823 12.379 0.486 
546 10 21.441 12.379 0.486 
2699 10 22.675 13.104 -1.458 
2700 9 22.675 13.104 -2.917 
2724 10 20.293 11.728 -5.349 
2725 10 20.293 8.978 -1.458 
2726 9 20.293 8.978 -2.917 
2727 10 20.293 10.353 -3.404 
2728 9 20.293 11.728 -3.89 
2729 10 19.102 12.416 -3.404 
2730 10 21.484 12.416 -3.404 
2738 10 17.91 13.104 -1.458 
2739 9 17.91 13.104 -2.917 
2769 10 16.719 12.416 -3.404 
2958 10 22.675 7.602 -5.349 
2962 9 22.675 7.602 -3.89 
2963 10 21.484 8.29 -3.404 
2997 10 17.91 7.602 -5.349 
3001 9 17.91 7.602 -3.89 
3002 10 16.719 8.29 -3.404 
3003 10 19.102 8.29 -3.404 
399 10 3.573 14.442 0.486 
722 9 1.191 17.193 0 
723 10 1.191 18.568 0.486 
725 10 2.382 16.505 0.486 
726 10 0 16.505 0.486 
740 9 5.956 17.193 0 
741 10 5.956 18.568 0.486 
743 10 7.147 16.505 0.486 
744 10 4.765 16.505 0.486 
761 10 4.765 20.631 0.486 
762 10 2.382 20.631 0.486 
780 10 7.147 20.631 0.486 
2555 10 5.999 19.981 -5.349 
2556 10 5.999 17.23 -1.458 
2557 9 5.999 17.23 -2.917 
2558 10 5.999 18.606 -3.404 
2559 9 5.999 19.981 -3.89 
2568 10 1.234 19.981 -5.349 
2569 10 1.234 17.23 -1.458 
2570 9 1.234 17.23 -2.917 
2571 10 1.234 18.606 -3.404 
2572 9 1.234 19.981 -3.89 
2794 10 7.19 16.542 -3.404 
2802 10 3.617 15.855 -5.349 
2805 10 3.617 14.479 -3.404 
2806 9 3.617 15.855 -3.89 
2807 10 2.425 16.542 -3.404 
2808 10 4.808 16.542 -3.404 
417 10 8.338 14.442 0.486 
471 10 13.103 14.442 0.486 
779 10 9.529 20.631 0.486 
794 9 10.72 17.193 0 
795 10 10.72 18.568 0.486 
797 10 11.912 16.505 0.486 
798 10 9.529 16.505 0.486 
812 9 15.485 17.193 0 
813 10 15.485 18.568 0.486 
816 10 14.294 16.505 0.486 
833 10 14.294 20.631 0.486 
834 10 11.912 20.631 0.486 
2503 10 15.528 19.981 -5.349 
2504 10 15.528 17.23 -1.458 
2505 9 15.528 17.23 -2.917 
2506 10 15.528 18.606 -3.404 
2507 9 15.528 19.981 -3.89 
2516 10 10.764 19.981 -5.349 
2517 10 10.764 17.23 -1.458 
2518 9 10.764 17.23 -2.917 
2519 10 10.764 18.606 -3.404 
2520 9 10.764 19.981 -3.89 
2750 10 13.146 15.855 -5.349 
2753 10 13.146 14.479 -3.404 
2754 9 13.146 15.855 -3.89 
2755 10 11.955 16.542 -3.404 
2756 10 14.337 16.542 -3.404 
2789 10 8.381 15.855 -5.349 
2792 10 8.381 14.479 -3.404 
2793 9 8.381 15.855 -3.89 
2795 10 9.572 16.542 -3.404 
489 10 17.867 14.442 0.486 
543 10 22.632 14.442 0.486 
815 10 16.676 16.505 0.486 
851 10 19.058 20.631 0.486 
852 10 16.676 20.631 0.486 
866 9 20.25 17.193 0 
867 10 20.25 18.568 0.486 
869 10 21.441 16.505 0.486 
870 10 19.058 16.505 0.486 
888 10 23.823 16.505 0.486 
905 10 23.823 20.631 0.486 
906 10 21.441 20.631 0.486 
2464 10 20.293 19.981 -5.349 
2465 10 20.293 17.23 -1.458 
2466 9 20.293 17.23 -2.917 
2467 10 20.293 18.606 -3.404 
2468 9 20.293 19.981 -3.89 
2698 10 22.675 15.855 -5.349 
2701 10 22.675 14.479 -3.404 
2702 9 22.675 15.855 -3.89 
2703 10 21.484 16.542 -3.404 
2737 10 17.91 15.855 -5.349 
2740 10 17.91 14.479 -3.404 
2741 9 17.91 15.855 -3.89 
2742 10 16.719 16.542 -3.404 
2743 10 19.102 16.542 -3.404 
1 10 1.191 0.688 6.322 
4 9 1.191 3.439 0.973 
7 10 1.191 3.439 2.431 
8 9 1.191 3.439 3.89 
9 10 1.191 2.063 4.377 
10 9 1.191 0.688 4.863 
11 10 2.382 0 4.377 
12 10 0 0 4.377 
19 10 5.956 0.688 6.322 
22 9 5.956 3.439 0.973 
25 10 5.956 3.439 2.431 
26 9 5.956 3.439 3.89 
27 10 5.956 2.063 4.377 
28 9 5.956 0.688 4.863 
29 10 7.147 0 4.377 
30 10 4.765 0 4.377 
37 10 3.573 4.814 6.322 
45 10 3.573 6.189 4.377 
46 9 3.573 4.814 4.863 
47 10 4.765 4.126 4.377 
48 10 2.382 4.126 4.377 
66 10 7.147 4.126 4.377 
55 10 8.338 4.814 6.322 
63 10 8.338 6.189 4.377 
64 9 8.338 4.814 4.863 
65 10 9.529 4.126 4.377 
73 10 10.72 0.688 6.322 
76 9 10.72 3.439 0.973 
79 10 10.72 3.439 2.431 
80 9 10.72 3.439 3.89 
81 10 10.72 2.063 4.377 
82 9 10.72 0.688 4.863 
83 10 11.912 0 4.377 
84 10 9.529 0 4.377 
91 10 15.485 0.688 6.322 
94 9 15.485 3.439 0.973 
97 10 15.485 3.439 2.431 
98 9 15.485 3.439 3.89 
99 10 15.485 2.063 4.377 
100 9 15.485 0.688 4.863 
102 10 14.294 0 4.377 
109 10 13.103 4.814 6.322 
117 10 13.103 6.189 4.377 
118 9 13.103 4.814 4.863 
119 10 14.294 4.126 4.377 
120 10 11.912 4.126 4.377 
101 10 16.676 0 4.377 
127 10 17.867 4.814 6.322 
135 10 17.867 6.189 4.377 
136 9 17.867 4.814 4.863 
137 10 19.058 4.126 4.377 
138 10 16.676 4.126 4.377 
145 10 20.25 0.688 6.322 
148 9 20.25 3.439 0.973 
151 10 20.25 3.439 2.431 
152 9 20.25 3.439 3.89 
153 10 20.25 2.063 4.377 
154 9 20.25 0.688 4.863 
155 10 21.441 0 4.377 
156 10 19.058 0 4.377 
174 10 23.823 0 4.377 
181 10 22.632 4.814 6.322 
189 10 22.632 6.189 4.377 
190 9 22.632 4.814 4.863 
191 10 23.823 4.126 4.377 
192 10 21.441 4.126 4.377 
40 9 3.573 7.565 0.973 
43 10 3.573 7.565 2.431 
44 9 3.573 7.565 3.89 
361 10 1.191 8.94 6.322 
364 9 1.191 11.691 0.973 
367 10 1.191 11.691 2.431 
368 9 1.191 11.691 3.89 
369 10 1.191 10.316 4.377 
370 9 1.191 8.94 4.863 
371 10 2.382 8.253 4.377 
372 10 0 8.253 4.377 
379 10 5.956 8.94 6.322 
382 9 5.956 11.691 0.973 
385 10 5.956 11.691 2.431 
386 9 5.956 11.691 3.89 
387 10 5.956 10.316 4.377 
388 9 5.956 8.94 4.863 
389 10 7.147 8.253 4.377 
390 10 4.765 8.253 4.377 
397 10 3.573 13.066 6.322 
406 9 3.573 13.066 4.863 
407 10 4.765 12.379 4.377 
408 10 2.382 12.379 4.377 
426 10 7.147 12.379 4.377 
58 9 8.338 7.565 0.973 
61 10 8.338 7.565 2.431 
62 9 8.338 7.565 3.89 
112 9 13.103 7.565 0.973 
115 10 13.103 7.565 2.431 
116 9 13.103 7.565 3.89 
415 10 8.338 13.066 6.322 
424 9 8.338 13.066 4.863 
425 10 9.529 12.379 4.377 
433 10 10.72 8.94 6.322 
436 9 10.72 11.691 0.973 
439 10 10.72 11.691 2.431 
440 9 10.72 11.691 3.89 
441 10 10.72 10.316 4.377 
442 9 10.72 8.94 4.863 
443 10 11.912 8.253 4.377 
444 10 9.529 8.253 4.377 
451 10 15.485 8.94 6.322 
454 9 15.485 11.691 0.973 
457 10 15.485 11.691 2.431 
458 9 15.485 11.691 3.89 
459 10 15.485 10.316 4.377 
460 9 15.485 8.94 4.863 
462 10 14.294 8.253 4.377 
469 10 13.103 13.066 6.322 
478 9 13.103 13.066 4.863 
479 10 14.294 12.379 4.377 
480 10 11.912 12.379 4.377 
130 9 17.867 7.565 0.973 
133 10 17.867 7.565 2.431 
134 9 17.867 7.565 3.89 
184 9 22.632 7.565 0.973 
187 10 22.632 7.565 2.431 
188 9 22.632 7.565 3.89 
461 10 16.676 8.253 4.377 
487 10 17.867 13.066 6.322 
496 9 17.867 13.066 4.863 
497 10 19.058 12.379 4.377 
498 10 16.676 12.379 4.377 
505 10 20.25 8.94 6.322 
508 9 20.25 11.691 0.973 
511 10 20.25 11.691 2.431 
512 9 20.25 11.691 3.89 
513 10 20.25 10.316 4.377 
514 9 20.25 8.94 4.863 
515 10 21.441 8.253 4.377 
516 10 19.058 8.253 4.377 
534 10 23.823 8.253 4.377 
541 10 22.632 13.066 6.322 
550 9 22.632 13.066 4.863 
551 10 23.823 12.379 4.377 
552 10 21.441 12.379 4.377 
400 9 3.573 15.817 0.973 
403 10 3.573 15.817 2.431 
404 9 3.573 15.817 3.89 
405 10 3.573 14.442 4.377 
721 10 1.191 17.193 6.322 
724 9 1.191 19.944 0.973 
727 10 1.191 19.944 2.431 
728 9 1.191 19.944 3.89 
729 10 1.191 18.568 4.377 
730 9 1.191 17.193 4.863 
731 10 2.382 16.505 4.377 
732 10 0 16.505 4.377 
739 10 5.956 17.193 6.322 
742 9 5.956 19.944 0.973 
745 10 5.956 19.944 2.431 
746 9 5.956 19.944 3.89 
747 10 5.956 18.568 4.377 
748 9 5.956 17.193 4.863 
749 10 7.147 16.505 4.377 
750 10 4.765 16.505 4.377 
767 10 4.765 20.631 4.377 
768 10 2.382 20.631 4.377 
786 10 7.147 20.631 4.377 
418 9 8.338 15.817 0.973 
421 10 8.338 15.817 2.431 
422 9 8.338 15.817 3.89 
423 10 8.338 14.442 4.377 
472 9 13.103 15.817 0.973 
475 10 13.103 15.817 2.431 
476 9 13.103 15.817 3.89 
477 10 13.103 14.442 4.377 
785 10 9.529 20.631 4.377 
793 10 10.72 17.193 6.322 
796 9 10.72 19.944 0.973 
799 10 10.72 19.944 2.431 
800 9 10.72 19.944 3.89 
801 10 10.72 18.568 4.377 
802 9 10.72 17.193 4.863 
803 10 11.912 16.505 4.377 
804 10 9.529 16.505 4.377 
811 10 15.485 17.193 6.322 
814 9 15.485 19.944 0.973 
817 10 15.485 19.944 2.431 
818 9 15.485 19.944 3.89 
819 10 15.485 18.568 4.377 
820 9 15.485 17.193 4.863 
822 10 14.294 16.505 4.377 
839 10 14.294 20.631 4.377 
840 10 11.912 20.631 4.377 
490 9 17.867 15.817 0.973 
493 10 17.867 15.817 2.431 
494 9 17.867 15.817 3.89 
495 10 17.867 14.442 4.377 
544 9 22.632 15.817 0.973 
547 10 22.632 15.817 2.431 
548 9 22.632 15.817 3.89 
549 10 22.632 14.442 4.377 
821 10 16.676 16.505 4.377 
857 10 19.058 20.631 4.377 
858 10 16.676 20.631 4.377 
865 10 20.25 17.193 6.322 
868 9 20.25 19.944 0.973 
871 10 20.25 19.944 2.431 
872 9 20.25 19.944 3.89 
873 10 20.25 18.568 4.377 
874 9 20.25 17.193 4.863 
875 10 21.441 16.505 4.377 
876 10 19.058 16.505 4.377 
894 10 23.823 16.505 4.377 
911 10 23.823 20.631 4.377 
912 10 21.441 20.631 4.377 
13 9 1.191 0.688 7.781 
14 10 2.382 0 8.267 
15 10 0 0 8.267 
16 10 1.191 2.063 8.267 
17 12 1.191 3.439 8.753 
18 13 1.191 3.439 10.212 
31 9 5.956 0.688 7.781 
32 10 7.147 0 8.267 
33 10 4.765 0 8.267 
34 10 5.956 2.063 8.267 
35 12 5.956 3.439 8.753 
36 13 5.956 3.439 10.212 
49 9 3.573 4.814 7.781 
50 10 4.765 4.126 8.267 
51 10 2.382 4.126 8.267 
52 10 3.573 6.189 8.267 
69 10 7.147 4.126 8.267 
3201 11 1.191 4.27576 11.407 
3202 11 5.956 4.27576 11.407 
4028 6 2.45596 1.47749 11.3 
4029 7 2.74078 2.08657 10.6113 
4082 6 7.167 1.44596 11.3155 
4083 7 7.57405 2.08261 10.7279 
67 9 8.338 4.814 7.781 
68 10 9.529 4.126 8.267 
70 10 8.338 6.189 8.267 
85 9 10.72 0.688 7.781 
86 10 11.912 0 8.267 
87 10 9.529 0 8.267 
88 10 10.72 2.063 8.267 
89 12 10.72 3.439 8.753 
90 13 10.72 3.439 10.212 
103 9 15.485 0.688 7.781 
105 10 14.294 0 8.267 
106 10 15.485 2.063 8.267 
107 12 15.485 3.439 8.753 
108 13 15.485 3.439 10.212 
121 9 13.103 4.814 7.781 
122 10 14.294 4.126 8.267 
123 10 11.912 4.126 8.267 
124 10 13.103 6.189 8.267 
3205 11 10.72 4.27576 11.407 
3206 8 14.9427 4.16667 11.5205 
3207 6 14.0243 2.83003 12.0661 
3208 7 13.8525 2.05571 11.5478 
3209 6 14.4886 5.6894 11.1104 
3210 7 15.0088 6.22547 10.5134 
4191 6 11.8643 1.43623 11.1462 
4192 7 12.3227 2.2428 10.9019 
104 10 16.676 0 8.267 
139 9 17.867 4.814 7.781 
140 10 19.058 4.126 8.267 
141 10 16.676 4.126 8.267 
142 10 17.867 6.189 8.267 
157 9 20.25 0.688 7.781 
158 10 21.441 0 8.267 
159 10 19.058 0 8.267 
160 10 20.25 2.063 8.267 
161 12 20.25 3.439 8.753 
162 13 20.25 3.439 10.212 
177 10 23.823 0 8.267 
193 9 22.632 4.814 7.781 
194 10 23.823 4.126 8.267 
195 10 21.441 4.126 8.267 
196 10 22.632 6.189 8.267 
3262 11 20.25 4.27576 11.407 
4242 11 17.867 0.1118 11.407 
4248 6 21.4664 1.45886 11.2739 
4249 7 21.9123 2.10225 10.7261 
53 12 3.573 7.565 8.753 
54 13 3.573 7.565 10.212 
373 9 1.191 8.94 7.781 
374 10 2.382 8.253 8.267 
375 10 0 8.253 8.267 
376 10 1.191 10.316 8.267 
377 12 1.191 11.691 8.753 
378 13 1.191 11.691 10.212 
391 9 5.956 8.94 7.781 
392 10 7.147 8.253 8.267 
393 10 4.765 8.253 8.267 
394 10 5.956 10.316 8.267 
395 12 5.956 11.691 8.753 
396 13 5.956 11.691 10.212 
409 9 3.573 13.066 7.781 
410 10 4.765 12.379 8.267 
411 10 2.382 12.379 8.267 
429 10 7.147 12.379 8.267 
3203 11 3.573 8.40176 11.407 
3327 11 1.191 12.5278 11.407 
3328 8 5.38917 12.33 11.5223 
3329 6 4.29061 11.1358 12.2022 
3330 7 3.86543 10.4354 11.7205 
71 12 8.338 7.565 8.753 
72 13 8.338 7.565 10.212 
125 12 13.103 7.565 8.753 
126 13 13.103 7.565 10.212 
427 9 8.338 13.066 7.781 
428 10 9.529 12.379 8.267 
445 9 10.72 8.94 7.781 
446 10 11.912 8.253 8.267 
447 10 9.529 8.253 8.267 
448 10 10.72 10.316 8.267 
449 12 10.72 11.691 8.753 
450 13 10.72 11.691 10.212 
463 9 15.485 8.94 7.781 
465 10 14.294 8.253 8.267 
466 10 15.485 10.316 8.267 
467 12 15.485 11.691 8.753 
468 13 15.485 11.691 10.212 
481 9 13.103 13.066 7.781 
482 10 14.294 12.379 8.267 
483 10 11.912 12.379 8.267 
3204 11 8.338 8.40176 11.407 
3260 11 13.103 8.40176 11.407 
3384 11 10.72 12.5278 11.407 
3385 11 15.485 12.5278 11.407 
143 12 17.867 7.565 8.753 
144 13 17.867 7.565 10.212 
197 12 22.632 7.565 8.753 
198 13 22.632 7.565 10.212 
464 10 16.676 8.253 8.267 
499 9 17.867 13.066 7.781 
500 10 19.058 12.379 8.267 
501 10 16.676 12.379 8.267 
517 9 20.25 8.94 7.781 
518 10 21.441 8.253 8.267 
519 10 19.058 8.253 8.267 
520 10 20.25 10.316 8.267 
521 12 20.25 11.691 8.753 
522 13 20.25 11.691 10.212 
537 10 23.823 8.253 8.267 
553 9 22.632 13.066 7.781 
554 10 23.823 12.379 8.267 
555 10 21.441 12.379 8.267 
3261 11 17.867 8.40176 11.407 
3264 11 22.632 8.40176 11.407 
3388 8 19.7186 12.35 11.5448 
3389 6 18.6076 11.1698 12.2049 
3390 7 18.0829 10.5713 11.7004 
3331 6 4.87149 13.8872 11.2813 
412 10 3.573 14.442 8.267 
413 12 3.573 15.817 8.753 
414 13 3.573 15.817 10.212 
733 9 1.191 17.193 7.781 
734 10 2.382 16.505 8.267 
735 10 0 16.505 8.267 
736 10 1.191 18.568 8.267 
737 12 1.191 19.944 8.753 
738 13 1.191 19.944 10.212 
751 9 5.956 17.193 7.781 
752 10 7.147 16.505 8.267 
753 10 4.765 16.505 8.267 
754 10 5.956 18.568 8.267 
755 12 5.956 19.944 8.753 
756 13 5.956 19.944 10.212 
770 10 4.765 20.631 8.267 
771 10 2.382 20.631 8.267 
789 10 7.147 20.631 8.267 
3332 7 5.18537 14.4937 10.6059 
3382 11 3.573 16.6538 11.407 
430 10 8.338 14.442 8.267 
431 12 8.338 15.817 8.753 
432 13 8.338 15.817 10.212 
484 10 13.103 14.442 8.267 
485 12 13.103 15.817 8.753 
486 13 13.103 15.817 10.212 
788 10 9.529 20.631 8.267 
805 9 10.72 17.193 7.781 
806 10 11.912 16.505 8.267 
807 10 9.529 16.505 8.267 
808 10 10.72 18.568 8.267 
809 12 10.72 19.944 8.753 
810 13 10.72 19.944 10.212 
823 9 15.485 17.193 7.781 
825 10 14.294 16.505 8.267 
826 10 15.485 18.568 8.267 
827 12 15.485 19.944 8.753 
828 13 15.485 19.944 10.212 
842 10 14.294 20.631 8.267 
843 10 11.912 20.631 8.267 
3383 11 8.338 16.6538 11.407 
3386 11 13.103 16.6538 11.407 
3391 6 19.083 13.847 11.2335 
502 10 17.867 14.442 8.267 
503 12 17.867 15.817 8.753 
504 13 17.867 15.817 10.212 
556 10 22.632 14.442 8.267 
557 12 22.632 15.817 8.753 
558 13 22.632 15.817 10.212 
824 10 16.676 16.505 8.267 
860 10 19.058 20.631 8.267 
861 10 16.676 20.631 8.267 
877 9 20.25 17.193 7.781 
878 10 21.441 16.505 8.267 
879 10 19.058 16.505 8.267 
880 10 20.25 18.568 8.267 
881 12 20.25 19.944 8.753 
882 13 20.25 19.944 10.212 
897 10 23.823 16.505 8.267 
914 10 23.823 20.631 8.267 
915 10 21.441 20.631 8.267 
3387 11 17.867 16.6538 11.407 
3392 7 19.3729 14.5611 10.665 
3443 8 22.1609 16.5996 11.5331 
3444 6 21.2219 15.2972 12.1569 
3445 7 20.9122 14.5415 11.6748 
3446 6 21.7289 18.1424 11.0765 
3447 7 20.9614 18.5173 10.642 
4030 5 3.79122 0.551735 13.1273 
4032 2 4.68515 1.13322 12.8989 
4033 2 3.0229 1.11842 13.6514 
4087 2 7.82738 1.2466 13.547 
4034 4 4.20482 0.0628391 15.3789 
4038 3 5.03985 0.187624 17.4202 
4041 4 6.17658 0.152954 18.2799 
4043 2 4.95651 1.16424 16.9486 
4042 2 4.08759 0.0932231 17.9493 
3211 5 15.6305 4.70323 13.1569 
4084 5 8.55078 0.562863 13.1146 
4086 2 9.56481 0.925996 12.9359 
4193 5 13.1729 0.490972 13.1982 
4195 2 14.2279 0.23171 13.3162 
3214 2 14.8395 5.19846 13.718 
4196 2 12.5187 1.28576 13.5416 
3216 2 15.0959 3.0139 14.129 
4088 4 9.0043 0.0482585 15.3637 
4092 3 9.82352 0.139701 17.4267 
4095 4 10.9654 0.0531976 18.2743 
4097 2 9.53798 1.17409 17.2546 
4197 4 13.7898 0.0421032 15.374 
4201 3 14.557 0.128923 17.4457 
4204 4 15.7196 0.184561 18.2661 
4206 2 14.6428 0.830231 16.6079 
4205 2 13.646 0.229592 18.0362 
4090 2 9.66318 0.00111072 13.3787 
3213 2 16.5043 5.31062 12.941 
4250 5 22.7386 0.577614 13.1642 
4252 2 23.6896 1.09039 13.0133 
4253 2 22.0114 1.29045 13.5553 
3212 3 16.0254 3.57577 14.0883 
3215 4 16.1024 4.16563 15.3579 
3217 2 16.6438 4.09708 13.3484 
3218 3 17.2142 3.68822 16.0203 
3219 3 16.976 4.31009 17.3912 
3220 2 18.0698 3.79398 15.3599 
3221 2 17.1767 2.58962 16.0281 
3222 4 18.1016 4.22598 18.2512 
3223 2 16.0548 3.99888 17.8906 
3224 2 16.9206 5.28299 16.9043 
4254 4 23.351 0.0993552 15.3419 
4263 2 23.7159 1.13041 17.2608 
4262 2 23.1783 0.471048 17.9359 
3333 5 6.12328 12.9268 13.1403 
3335 2 7.11466 13.344 12.9536 
3336 2 5.31646 13.3841 13.7095 
3334 3 6.57977 11.8446 14.0815 
3337 4 6.60875 12.4386 15.3563 
3338 2 5.86805 11.0235 14.0927 
3339 2 7.32546 12.2652 13.4059 
3340 3 7.68654 11.9363 16.0654 
3341 3 7.46423 12.6237 17.4089 
3343 2 7.63012 10.8456 16.0467 
3345 2 6.54242 12.2048 17.8107 
3346 2 7.40389 13.6376 17.0103 
3342 2 8.58933 12.1116 15.4754 
3344 4 8.56648 12.482 18.2898 
3393 5 20.1633 12.9106 13.2517 
3395 2 21.2122 12.7269 13.4668 
3396 2 19.4721 13.7086 13.5148 
3394 3 20.8786 11.8723 14.0613 
3397 4 21.011 12.4727 15.3374 
3398 2 20.15 11.0623 14.1165 
3399 2 21.73 12.0822 13.4089 
3400 3 21.9971 11.8628 16.0829 
3401 3 21.7197 12.5292 17.4227 
3402 2 22.9442 11.9462 15.5433 
3403 2 21.7899 10.7931 16.1361 
3404 4 22.8666 12.5081 18.2637 
3405 2 21.0161 11.7372 17.691 
3406 2 21.4283 13.5498 17.1716 
3448 5 22.9864 17.1263 13.1125 
3451 2 22.3223 17.8141 13.6391 
3449 3 23.2268 15.9904 14.0919 
3452 4 23.2972 16.6007 15.3638 
3453 2 22.5631 15.1276 14.2088 
3460 2 23.13 16.565 17.9785 
4045 3 6.88492 0.592729 20.5706 
4047 2 5.09496 0.589672 19.9557 
4048 4 7.02299 0.0865587 21.9282 
4049 2 6.71208 1.66745 20.5349 
4053 2 7.768 1.81643 22.7628 
4057 2 7.25617 0.92455 24.5755 
4050 2 7.80895 0.472026 19.9907 
4051 3 8.0361 0.766383 22.71 
4052 3 8.12881 0.356462 24.2542 
4054 2 8.9768 0.756581 22.1619 
4055 4 9.32792 0.670172 25.0506 
4099 3 11.6613 0.591129 20.5749 
4101 2 10.2194 0.82195 20.0059 
4102 4 11.7903 0.102553 21.9426 
4103 2 11.4045 1.64378 20.5417 
4104 2 12.6246 0.857062 20.1343 
4105 3 12.7734 0.807106 22.7384 
4106 3 12.9105 0.327702 24.2518 
4107 2 12.4944 1.86018 22.7753 
4108 2 13.7389 0.676426 22.2617 
4109 4 14.1267 0.58485 25.042 
4111 2 12.0357 0.164608 24.8863 
4210 2 15.0013 0.804169 20.0641 
3225 3 17.748 4.08787 19.6115 
3226 3 18.8644 4.69615 20.5313 
3227 2 18.2969 3.22201 19.9891 
3228 2 17.1247 4.93011 19.8968 
3229 4 18.8914 4.26362 21.9236 
3230 2 18.7226 5.7773 20.4371 
3231 2 19.8438 4.58602 20.0681 
3232 3 19.9169 4.92042 22.7093 
3233 3 20.0183 4.51143 24.2539 
3234 2 19.7529 5.99124 22.6752 
3235 2 20.8683 4.83619 22.1863 
3236 4 21.24 4.79612 25.0255 
3237 2 20.2461 3.77474 23.4779 
3238 2 19.1366 4.98205 24.6921 
4208 3 16.5225 0.532676 20.5666 
4211 4 16.5008 0.153108 21.9759 
4212 2 16.2039 1.5639 20.4365 
4213 2 17.4683 0.283563 20.0976 
4214 3 17.5517 0.791908 22.749 
4215 3 17.6853 0.330112 24.2682 
4216 2 17.4505 1.86769 22.6597 
4217 2 18.5039 0.628633 22.2521 
4218 4 18.8792 0.672429 25.0551 
4220 2 16.769 0.648377 24.7689 
3350 2 7.43721 13.1293 19.8744 
3581 2 0.794764 12.6951 20.0837 
3582 3 0.784029 13.2075 22.7353 
3583 3 0.949249 12.739 24.247 
3585 2 1.73984 13.1235 22.2258 
3586 4 2.16528 13.0485 25.0117 
3587 2 1.05677 11.7625 23.7537 
3588 2 0.0625697 12.8994 24.8534 
3347 3 8.19162 12.3711 19.6465 
3348 3 9.34462 12.9085 20.5553 
3349 2 8.51636 11.3852 19.9885 
3351 4 9.33004 12.5371 21.9643 
3353 2 10.2875 12.6347 20.0822 
3354 3 10.3924 13.1541 22.7298 
3355 3 10.5137 12.7161 24.2547 
3357 2 11.3474 12.9652 22.2307 
3358 4 11.7426 13.0076 25.0031 
3359 2 10.6782 11.8565 23.6013 
3360 2 9.67398 12.5339 24.9264 
3407 3 22.543 12.3162 19.6316 
3408 3 23.6597 12.9186 20.5551 
3409 2 22.4941 11.2363 19.8082 
3410 2 21.746 13.0187 19.8935 
3411 4 23.6328 12.5697 21.9713 
3584 2 0.604481 14.2827 22.6902 
3766 2 0.900166 19.9487 24.01 
3352 2 9.27337 13.9882 20.4246 
3356 2 10.2531 14.2348 22.6904 
3412 2 23.2786 13.9263 20.3857 
4117 2 15.5877 0.21437 27.0272 
4058 3 9.1647 1.22583 26.3887 
4059 3 9.84534 0.492531 27.6188 
4060 2 8.61269 2.16132 26.2714 
4061 2 9.854 2.06222 26.4587 
4062 4 10.211 1.22793 28.8059 
4065 3 10.7871 0.576153 29.9703 
4066 3 11.1057 1.75763 30.9505 
4067 2 11.7517 0.106546 29.6857 
4068 2 10.4626 0.937553 30.9767 
4070 2 10.3526 0.967626 30.822 
4071 2 11.6789 1.13139 30.1407 
4112 3 13.9819 1.20628 26.348 
4113 3 14.6881 0.49432 27.5744 
4114 2 13.3684 2.09369 26.1871 
4115 2 14.8724 1.80156 26.5198 
4116 4 15.0248 1.21688 28.7744 
4119 3 15.5403 0.567971 29.969 
4122 2 15.2061 1.03286 30.9283 
4124 2 15.1198 1.07317 30.7579 
4226 2 20.2637 0.065253 27.1636 
3239 3 21.1202 5.39055 26.3415 
3240 3 21.777 4.63948 27.5676 
3241 2 20.6265 6.3603 26.2046 
3242 2 21.9784 6.03063 26.468 
3243 4 22.042 5.36188 28.7949 
3244 2 22.6877 4.273 27.0869 
3245 2 20.8419 4.07413 27.6242 
3246 3 22.6297 4.71238 29.9558 
3247 3 23.0532 5.91201 30.8472 
3248 2 23.6618 4.37479 29.7051 
3249 2 22.3388 5.17165 30.9475 
3251 2 22.2323 5.17135 30.7857 
4120 3 15.9837 1.74263 30.8521 
4125 2 16.522 0.958244 30.1485 